 Gaussian 09, Revision D.01,
 Gaussian 09:  EM64L-G09RevD.01 24-Apr-2013

 ----------------------------------------------------------------------
 #p opt freq scf=xqc geom=connectivity pbe1pbe def2svp empiricaldispers
 ion=gd3bj
 ----------------------------------------------------------------------

 -------------------------------------------------------------
 -- "DACP2 PM6 Reactant Structure from SI for Optimisation" --
 -------------------------------------------------------------
 Symbolic Z-matrix:
 Charge =  0 Multiplicity = 1

 SCF Done:  E(RPBE1PBE) =  -387.474007642     A.U. after   13 cycles
 SCF Done:  E(RPBE1PBE) =  -387.477713721     A.U. after   11 cycles
 SCF Done:  E(RPBE1PBE) =  -387.477987155     A.U. after    9 cycles
 SCF Done:  E(RPBE1PBE) =  -387.478029293     A.U. after   10 cycles
 SCF Done:  E(RPBE1PBE) =  -387.478033617     A.U. after    8 cycles
 SCF Done:  E(RPBE1PBE) =  -387.478037321     A.U. after    8 cycles
 SCF Done:  E(RPBE1PBE) =  -387.478043865     A.U. after   10 cycles
 SCF Done:  E(RPBE1PBE) =  -387.476638867     A.U. after   14 cycles
 SCF Done:  E(RPBE1PBE) =  -387.478050730     A.U. after    9 cycles
 SCF Done:  E(RPBE1PBE) =  -387.477605768     A.U. after   13 cycles
 SCF Done:  E(RPBE1PBE) =  -387.476661096     A.U. after   11 cycles
 SCF Done:  E(RPBE1PBE) =  -387.478165014     A.U. after    7 cycles
 SCF Done:  E(RPBE1PBE) =  -387.478006825     A.U. after   14 cycles
 SCF Done:  E(RPBE1PBE) =  -387.478158183     A.U. after   12 cycles
 SCF Done:  E(RPBE1PBE) =  -387.478168040     A.U. after   10 cycles
 SCF Done:  E(RPBE1PBE) =  -387.478169296     A.U. after    8 cycles
 SCF Done:  E(RPBE1PBE) =  -387.478169940     A.U. after    7 cycles
 SCF Done:  E(RPBE1PBE) =  -387.478170353     A.U. after    8 cycles
 SCF Done:  E(RPBE1PBE) =  -387.478170584     A.U. after    7 cycles
 Optimization completed.
    -- Stationary point found.
 Normal termination of Gaussian 09 at Sat May 30 21:50:57 2015.

 ---------------------------------------------------------------------
 #P Geom=AllCheck Guess=TCheck SCRF=Check GenChk RPBE1PBE/def2SVP Freq
 ---------------------------------------------------------------------

 Structure from the checkpoint file:  "BSP_DACP2_R.chk"
 -------------------------------------------------------------
 -- "DACP2 PM6 Reactant Structure from SI for Optimisation" --
 -------------------------------------------------------------
 Charge =  0 Multiplicity = 1

                         Standard orientation:
 ---------------------------------------------------------------------
 Center     Atomic      Atomic             Coordinates (Angstroms)
 Number     Number       Type             X           Y           Z
 ---------------------------------------------------------------------
      1          1           0       -0.180919   -0.407226    1.244901
      2          6           0       -1.275291   -0.242453    1.209631
      3          6           0       -1.620572    1.092207    0.634157
      4          6           0       -2.394501    0.915702   -0.459506
      5          6           0       -2.603582   -0.517153   -0.671509
      6          6           0       -1.957410   -1.207478    0.294949
      7          1           0       -1.623290   -0.346319    2.254731
      8          6           0        2.603584   -0.517149    0.671510
      9          1           0       -1.279848    2.041984    1.047275
     10          1           0       -2.801626    1.703985   -1.095393
     11          1           0       -3.191582   -0.945835   -1.485363
     12          6           0        1.957411   -1.207478   -0.294945
     13          1           0       -1.923595   -2.291542    0.410473
     14          1           0        1.923598   -2.291543   -0.410466
     15          1           0        3.191586   -0.945828    1.485365
     16          6           0        2.394497    0.915704    0.459504
     17          6           0        1.620570    1.092205   -0.634161
     18          1           0        2.801620    1.703991    1.095390
     19          1           0        1.279846    2.041980   -1.047282
     20          6           0        1.275292   -0.242457   -1.209631
     21          1           0        0.180919   -0.407232   -1.244900
     22          1           0        1.623292   -0.346326   -2.254730
 ---------------------------------------------------------------------

 SCF Done:  E(RPBE1PBE) =  -387.478170584     A.U. after    1 cycles

 The electronic state is 1-A.
 Alpha  occ. eigenvalues --  -10.23444 -10.23439 -10.23090 -10.23088 -10.22971
 Alpha  occ. eigenvalues --  -10.22968 -10.22928 -10.22922 -10.22851 -10.22849
 Alpha  occ. eigenvalues --   -0.87763  -0.87414  -0.71643  -0.71533  -0.71476
 Alpha  occ. eigenvalues --   -0.71399  -0.55895  -0.55817  -0.53893  -0.53791
 Alpha  occ. eigenvalues --   -0.52623  -0.52503  -0.46195  -0.42816  -0.40643
 Alpha  occ. eigenvalues --   -0.40549  -0.38499  -0.38480  -0.37095  -0.37018
 Alpha  occ. eigenvalues --   -0.37000  -0.36905  -0.32077  -0.30260  -0.23781
 Alpha  occ. eigenvalues --   -0.22329
 Alpha virt. eigenvalues --   -0.01861  -0.01016   0.07707   0.07977   0.08751
 Alpha virt. eigenvalues --    0.09672   0.11246   0.12066   0.12374   0.13942
 Alpha virt. eigenvalues --    0.14159   0.15259   0.15308   0.15581   0.16146

 Mulliken charges:
               1
     1  H    0.097742
     2  C    0.004080
     3  C   -0.090136
     4  C   -0.038471
     5  C   -0.036126
     6  C   -0.113925
     7  H    0.076312
     8  C   -0.036126
     9  H    0.029306
    10  H    0.020100
    11  H    0.021531
    12  C   -0.113925
    13  H    0.029587
    14  H    0.029587
    15  H    0.021531
    16  C   -0.038472
    17  C   -0.090135
    18  H    0.020100
    19  H    0.029306
    20  C    0.004079
    21  H    0.097742
    22  H    0.076312
 Sum of Mulliken charges =   0.00000

 Dipole moment (field-independent basis, Debye):
    X=              0.0000    Y=             -0.1813    Z=              0.0000  Tot=              0.1813
 Quadrupole moment (field-independent basis, Debye-Ang):
   XX=            -64.6973   YY=            -57.2187   ZZ=            -57.3030
   XY=              0.0000   XZ=              3.2401   YZ=              0.0000

  Exact polarizability:  92.514   0.000 103.161  23.875   0.000  96.090
 Approx polarizability: 128.823   0.000 159.556  47.890   0.000 159.101

                      1                      2                      3
                      A                      A                      A
 Frequencies --     16.7782                56.4085                66.7846
 Red. masses --      3.2957                 3.4745                 3.2466
 Frc consts  --      0.0005                 0.0065                 0.0085
 IR Inten    --      0.1082                 0.6408                 0.0000

                      4                      5                      6
                      A                      A                      A
 Frequencies --     72.6295                76.6124               109.0259
 Red. masses --      5.3124                 3.1002                 3.8567
 Frc consts  --      0.0165                 0.0107                 0.0270
 IR Inten    --      0.0000                 2.2900                 0.0016

                      7                      8                      9
                      A                      A                      A
 Frequencies --    342.4731               360.2122               529.9126
 Red. masses --      1.4357                 1.3974                 2.3426
 Frc consts  --      0.0992                 0.1068                 0.3876
 IR Inten    --     34.3206                 0.0058                 0.1146

                     10                     11                     12
                      A                      A                      A
 Frequencies --    530.8325               682.2429               686.3185
 Red. masses --      2.3669                 1.2059                 1.2163
 Frc consts  --      0.3930                 0.3307                 0.3375
 IR Inten    --      0.0701               148.9185                 0.2686

                     13                     14                     15
                      A                      A                      A
 Frequencies --    717.7040               726.9115               811.7442
 Red. masses --      1.2753                 1.2753                 4.8407
 Frc consts  --      0.3871                 0.3970                 1.8793
 IR Inten    --      0.5478                 2.2639                 0.4153

                     16                     17                     18
                      A                      A                      A
 Frequencies --    812.0714               813.9345               815.2322
 Red. masses --      4.8406                 5.0836                 5.1934
 Frc consts  --      1.8808                 1.9843                 2.0336
 IR Inten    --      0.2789                 0.3801                10.1408

                     19                     20                     21
                      A                      A                      A
 Frequencies --    902.8793               905.5411               948.4197
 Red. masses --      1.8863                 1.8576                 1.8225
 Frc consts  --      0.9060                 0.8975                 0.9659
 IR Inten    --     54.9987                 0.1472                26.4034

                     22                     23                     24
                      A                      A                      A
 Frequencies --    949.2652               966.5897               967.5556
 Red. masses --      1.8141                 1.3183                 1.3191
 Frc consts  --      0.9631                 0.7257                 0.7276
 IR Inten    --      0.8480                 0.5015                 0.0694

                     25                     26                     27
                      A                      A                      A
 Frequencies --    969.8113               969.8832               976.2687
 Red. masses --      1.3266                 1.3193                 1.4130
 Frc consts  --      0.7351                 0.7312                 0.7935
 IR Inten    --      0.0316                 0.0016                 0.7230

                     28                     29                     30
                      A                      A                      A
 Frequencies --    981.2121              1037.3784              1038.3101
 Red. masses --      1.3993                 2.0247                 2.0252
 Frc consts  --      0.7937                 1.2837                 1.2864
 IR Inten    --     20.0311                 0.1465                 0.1329

                     31                     32                     33
                      A                      A                      A
 Frequencies --   1095.6964              1097.0562              1107.2725
 Red. masses --      1.1253                 1.1240                 1.1518
 Frc consts  --      0.7960                 0.7970                 0.8321
 IR Inten    --      8.6332                 0.3848                 0.1694

                     34                     35                     36
                      A                      A                      A
 Frequencies --   1109.7155              1122.9672              1122.9970
 Red. masses --      1.1506                 1.4518                 1.4720
 Frc consts  --      0.8348                 1.0787                 1.0937
 IR Inten    --      0.1542                 0.1752                 0.0136

                     37                     38                     39
                      A                      A                      A
 Frequencies --   1263.9871              1264.2892              1332.4416
 Red. masses --      1.4495                 1.4410                 2.3863
 Frc consts  --      1.3645                 1.3571                 2.4961
 IR Inten    --      1.5983                 0.0066                 3.1451

                     40                     41                     42
                      A                      A                      A
 Frequencies --   1333.6129              1360.6239              1373.1354
 Red. masses --      2.4158                 1.1172                 1.1109
 Frc consts  --      2.5315                 1.2186                 1.2341
 IR Inten    --      0.0205                44.2482                 3.4380

                     43                     44                     45
                      A                      A                      A
 Frequencies --   1415.9341              1416.5038              1587.8311
 Red. masses --      2.1502                 2.1597                 6.5201
 Frc consts  --      2.5399                 2.5532                 9.6852
 IR Inten    --      0.0570                 5.3872                 0.0228

                     46                     47                     48
                      A                      A                      A
 Frequencies --   1588.7995              1668.1625              1668.6656
 Red. masses --      6.6045                 5.6809                 5.6472
 Frc consts  --      9.8226                 9.3142                 9.2645
 IR Inten    --      3.7246                 1.9141                 0.6967

                     49                     50                     51
                      A                      A                      A
 Frequencies --   3043.4841              3044.6785              3086.7030
 Red. masses --      1.0649                 1.0647                 1.0988
 Frc consts  --      5.8114                 5.8149                 6.1683
 IR Inten    --      0.0148                19.3665                 0.1104

                     52                     53                     54
                      A                      A                      A
 Frequencies --   3087.6805              3225.0502              3225.0543
 Red. masses --      1.0993                 1.0875                 1.0875
 Frc consts  --      6.1748                 6.6642                 6.6643
 IR Inten    --      5.1629                 0.8727                 6.5083

                     55                     56                     57
                      A                      A                      A
 Frequencies --   3235.7274              3235.9199              3254.6221
 Red. masses --      1.0908                 1.0909                 1.1028
 Frc consts  --      6.7287                 6.7304                 6.8828
 IR Inten    --      9.5773                 1.3705                 2.2228

                     58                     59                     60
                      A                      A                      A
 Frequencies --   3255.0972              3260.9154              3261.4398
 Red. masses --      1.1028                 1.1080                 1.1077
 Frc consts  --      6.8845                 6.9415                 6.9422
 IR Inten    --      9.6708                 1.6920                 1.4015

 - Thermochemistry -
 -------------------
 Temperature   298.150 Kelvin.  Pressure   1.00000 Atm.
 Atom     1 has atomic number  1 and mass   1.00783

 Molecular mass:   132.09390 amu.
 Principal axes and moments of inertia in atomic units:
                           1         2         3
     Eigenvalues --   729.571192258.112012376.98961
           X            0.99997   0.00000   0.00772
           Y            0.00000   1.00000   0.00000
           Z           -0.00772   0.00000   0.99997
 This molecule is an asymmetric top.
 Rotational symmetry number  1.
 Warning -- assumption of classical behavior for rotation
           may cause significant error
 Rotational temperatures (Kelvin)      0.11872     0.03836     0.03644
 Rotational constants (GHZ):           2.47370     0.79923     0.75925
 Zero-point vibrational energy     490391.2 (Joules/Mol)
                                  117.20631 (Kcal/Mol)
 Warning -- explicit consideration of  10 degrees of freedom as
           vibrations may cause significant error
 Vibrational temperatures:     24.14    81.16    96.09   104.50   110.23
          (Kelvin)            156.86   492.74   518.26   762.43   763.75
                              981.59   987.46  1032.61  1045.86  1167.92
                             1168.39  1171.07  1172.94  1299.04  1302.87
                             1364.56  1365.78  1390.71  1392.09  1395.34
                             1395.44  1404.63  1411.74  1492.55  1493.89
                             1576.46  1578.42  1593.12  1596.63  1615.70
                             1615.74  1818.59  1819.03  1917.08  1918.77
                             1957.63  1975.63  2037.21  2038.03  2284.53
                             2285.93  2400.11  2400.83  4378.89  4380.61
                             4441.07  4442.48  4640.12  4640.13  4655.48
                             4655.76  4682.67  4683.35  4691.72  4692.48

 Zero-point correction=                           0.186780 (Hartree/Particle)
 Thermal correction to Energy=                    0.197036
 Thermal correction to Enthalpy=                  0.197980
 Thermal correction to Gibbs Free Energy=         0.148181
 Sum of electronic and zero-point Energies=           -387.291390
 Sum of electronic and thermal Energies=              -387.281135
 Sum of electronic and thermal Enthalpies=            -387.280191
 Sum of electronic and thermal Free Energies=         -387.329990

                     E (Thermal)             CV                S
                      KCal/Mol        Cal/Mol-Kelvin    Cal/Mol-Kelvin
 Total                  123.642             36.941            104.810
 Electronic               0.000              0.000              0.000
 Translational            0.889              2.981             40.548
 Rotational               0.889              2.981             29.750
 Vibrational            121.864             30.979             34.512
 Vibration     1          0.593              1.986              6.983
 Vibration     2          0.596              1.975              4.579
 Vibration     3          0.598              1.970              4.246
 Vibration     4          0.599              1.967              4.081
 Vibration     5          0.599              1.965              3.976
 Vibration     6          0.606              1.942              3.286
 Vibration     7          0.722              1.591              1.201
 Vibration     8          0.735              1.554              1.121
 Vibration     9          0.885              1.184              0.587
 Vibration    10          0.886              1.182              0.585

 Normal termination of Gaussian 09 at Sat May 30 21:58:05 2015.
