 Gaussian 09, Revision D.01,
 Gaussian 09:  EM64L-G09RevD.01 24-Apr-2013

 ----------------------------------------------------------------------
 #p pbe1pbe def2svp opt freq pop(hirshfeld) density=current iop(7/33=1)
  iop(6/80=1)
 ----------------------------------------------------------------------

 ----------------------
 -- Hydrogenperoxide --
 ----------------------
 Symbolic Z-matrix:
 Charge =  0 Multiplicity = 1

 SCF Done:  E(RPBE1PBE) =  -151.256358357     A.U. after   10 cycles
 SCF Done:  E(RPBE1PBE) =  -151.262503615     A.U. after   11 cycles
 SCF Done:  E(RPBE1PBE) =  -151.263753794     A.U. after   10 cycles
 SCF Done:  E(RPBE1PBE) =  -151.263800019     A.U. after    8 cycles
 SCF Done:  E(RPBE1PBE) =  -151.263809281     A.U. after    8 cycles
 SCF Done:  E(RPBE1PBE) =  -151.263811894     A.U. after    7 cycles
 SCF Done:  E(RPBE1PBE) =  -151.263812329     A.U. after    7 cycles
 Optimization completed.
    -- Stationary point found.
 Normal termination of Gaussian 09 at Thu Feb  4 12:52:37 2016.

 ----------------------------------------------------------------------
 #P Geom=AllCheck Guess=TCheck SCRF=Check Test GenChk RPBE1PBE/def2SVP
 Freq
 ----------------------------------------------------------------------

 Structure from the checkpoint file:  "g09-h2o2.chk"
 ----------------------
 -- Hydrogenperoxide --
 ----------------------
 Charge =  0 Multiplicity = 1

                         Standard orientation:
 ---------------------------------------------------------------------
 Center     Atomic      Atomic             Coordinates (Angstroms)
 Number     Number       Type             X           Y           Z
 ---------------------------------------------------------------------
      1          1           0        0.811967    0.894176    0.436846
      2          8           0        0.000000    0.709258   -0.054606
      3          8           0        0.000000   -0.709258   -0.054606
      4          1           0       -0.811967   -0.894176    0.436846
 ---------------------------------------------------------------------

 SCF Done:  E(RPBE1PBE) =  -151.263812329     A.U. after    1 cycles

 The electronic state is 1-A.
 Alpha  occ. eigenvalues --  -19.25569 -19.25560  -1.14229  -0.89725  -0.54952
 Alpha  occ. eigenvalues --   -0.50443  -0.43162  -0.32757  -0.28032
 Alpha virt. eigenvalues --    0.05396   0.06799   0.12863   0.60604   0.60676
 Alpha virt. eigenvalues --    0.88543   0.89767   0.93269   0.98942   1.01531
 Alpha virt. eigenvalues --    1.04433   1.20644   1.28408   1.35136   1.39713

 Mulliken charges:
               1
     1  H    0.196418
     2  O   -0.196418
     3  O   -0.196418
     4  H    0.196418
 Sum of Mulliken charges =   0.00000

 Dipole moment (field-independent basis, Debye):
    X=              0.0000    Y=              0.0000    Z=              1.7952  Tot=              1.7952
 Quadrupole moment (field-independent basis, Debye-Ang):
   XX=             -9.1603   YY=            -11.1254   ZZ=            -11.3848
   XY=              2.9990   XZ=              0.0000   YZ=              0.0000

  Exact polarizability:   8.788   2.216  12.873   0.000   0.000   6.073
 Approx polarizability:  10.611   2.110  17.397   0.000   0.000   7.133

                      1                      2                      3
                      A                      A                      B
 Frequencies --    355.8409              1012.1111              1341.7255
 Red. masses --      1.0848                14.0382                 1.1032
 Frc consts  --      0.0809                 8.4726                 1.1701
 IR Inten    --    201.6787                 1.5566                98.9816

                      4                      5                      6
                      A                      B                      A
 Frequencies --   1481.1907              3826.5720              3827.6478
 Red. masses --      1.0951                 1.0676                 1.0704
 Frc consts  --      1.4155                 9.2106                 9.2394
 IR Inten    --      0.0647                66.1307                15.5876

 - Thermochemistry -
 -------------------
 Temperature   298.150 Kelvin.  Pressure   1.00000 Atm.
 Atom     1 has atomic number  1 and mass   1.00783

 Molecular mass:    34.00548 amu.
 Principal axes and moments of inertia in atomic units:
                           1         2         3
     Eigenvalues --     5.91765  65.32094  67.96769
           X            0.08832   0.99609   0.00000
           Y            0.99609  -0.08832   0.00000
           Z            0.00000   0.00000   1.00000
 This molecule is an asymmetric top.
 Rotational symmetry number  2.
 Rotational temperatures (Kelvin)     14.63652     1.32597     1.27434
 Rotational constants (GHZ):         304.97594    27.62883    26.55293
 Zero-point vibrational energy      70849.4 (Joules/Mol)
                                   16.93340 (Kcal/Mol)
 Warning -- explicit consideration of   1 degrees of freedom as
           vibrations may cause significant error
 Vibrational temperatures:    511.98  1456.20  1930.44  2131.10  5505.58
          (Kelvin)           5507.12

 Zero-point correction=                           0.026985 (Hartree/Particle)
 Thermal correction to Energy=                    0.030222
 Thermal correction to Enthalpy=                  0.031167
 Thermal correction to Gibbs Free Energy=         0.005365
 Sum of electronic and zero-point Energies=           -151.236827
 Sum of electronic and thermal Energies=              -151.233590
 Sum of electronic and thermal Enthalpies=            -151.232646
 Sum of electronic and thermal Free Energies=         -151.258448

                     E (Thermal)             CV                S
                      KCal/Mol        Cal/Mol-Kelvin    Cal/Mol-Kelvin
 Total                   18.965              8.098             54.304
 Electronic               0.000              0.000              0.000
 Translational            0.889              2.981             36.503
 Rotational               0.889              2.981             16.537
 Vibrational             17.187              2.136              1.265
 Vibration     1          0.731              1.563              1.140

 Optimization completed.
    -- Stationary point found.
 Normal termination of Gaussian 09 at Thu Feb  4 12:52:49 2016.
