 Gaussian 09, Revision D.01,
 Gaussian 09:  EM64L-G09RevD.01 24-Apr-2013

 -------------------------------------------------------------
 #p opt freq scf=xqc pbe1pbe def2svp empiricaldispersion=gd3bj
 -------------------------------------------------------------

 ------------------------
 -- "Cl2 Optimisation" --
 ------------------------
 Symbolic Z-matrix:
 Charge =  0 Multiplicity = 1

 SCF Done:  E(RPBE1PBE) =  -919.762265201     A.U. after   10 cycles
 SCF Done:  E(RPBE1PBE) =  -919.762878679     A.U. after    9 cycles
 SCF Done:  E(RPBE1PBE) =  -919.763021498     A.U. after    7 cycles
 Optimization completed.
    -- Stationary point found.
 Normal termination of Gaussian 09 at Sat Sep 12 23:28:44 2015.

 ---------------------------------------------------------------------
 #P Geom=AllCheck Guess=TCheck SCRF=Check GenChk RPBE1PBE/def2SVP Freq
 ---------------------------------------------------------------------

 Structure from the checkpoint file:  "Cl2_forDissoc.chk"
 ------------------------
 -- "Cl2 Optimisation" --
 ------------------------
 Charge =  0 Multiplicity = 1

                         Standard orientation:
 ---------------------------------------------------------------------
 Center     Atomic      Atomic             Coordinates (Angstroms)
 Number     Number       Type             X           Y           Z
 ---------------------------------------------------------------------
      1         17           0        0.000000    0.000000    1.013140
      2         17           0        0.000000    0.000000   -1.013140
 ---------------------------------------------------------------------

 SCF Done:  E(RPBE1PBE) =  -919.763021498     A.U. after    1 cycles

 The electronic state is 1-SGG.
 Alpha  occ. eigenvalues -- -101.73180-101.73176  -9.58183  -9.58181  -7.32701
 Alpha  occ. eigenvalues --   -7.32692  -7.31121  -7.31121  -7.31121  -7.31121
 Alpha  occ. eigenvalues --   -0.95103  -0.78590  -0.48049  -0.41539  -0.41539
 Alpha  occ. eigenvalues --   -0.31598  -0.31598
 Alpha virt. eigenvalues --   -0.11809   0.41848   0.52948   0.56542   0.59709
 Alpha virt. eigenvalues --    0.59709   0.73519   0.73523   0.77647   0.77650
 Alpha virt. eigenvalues --    0.79257   0.79257   0.80919   0.84444   0.84444

 Mulliken charges:
               1
     1  Cl   0.000000
     2  Cl   0.000000
 Sum of Mulliken charges =   0.00000

 Dipole moment (field-independent basis, Debye):
    X=              0.0000    Y=              0.0000    Z=              0.0000  Tot=              0.0000
 Quadrupole moment (field-independent basis, Debye-Ang):
   XX=            -24.9153   YY=            -24.9153   ZZ=            -21.7970
   XY=              0.0000   XZ=              0.0000   YZ=              0.0000

  Exact polarizability:  10.701   0.000  10.701   0.000   0.000  31.204
 Approx polarizability:  14.538   0.000  14.538   0.000   0.000  53.751

                      1
                     SGG
 Frequencies --    526.5081
 Red. masses --     34.9689
 Frc consts  --      5.7114
 IR Inten    --      0.0000

 - Thermochemistry -
 -------------------
 Temperature   298.150 Kelvin.  Pressure   1.00000 Atm.
 Atom     1 has atomic number 17 and mass  34.96885

 Molecular mass:    69.93771 amu.
 Principal axes and moments of inertia in atomic units:
                           1         2         3
     Eigenvalues --     0.00000 256.35884 256.35884
           X            0.00000   1.00000   0.00000
           Y            0.00000   0.00000   1.00000
           Z            1.00000   0.00000   0.00000
 This molecule is a prolate symmetric top.
 Rotational symmetry number  2.
 Rotational temperature (Kelvin)      0.33786
 Rotational constant (GHZ):           7.039902
 Zero-point vibrational energy       3149.2 (Joules/Mol)
                                    0.75268 (Kcal/Mol)
 Warning -- explicit consideration of   1 degrees of freedom as
           vibrations may cause significant error
 Vibrational temperatures:    757.53
          (Kelvin)

 Zero-point correction=                           0.001199 (Hartree/Particle)
 Thermal correction to Energy=                    0.003765
 Thermal correction to Enthalpy=                  0.004709
 Thermal correction to Gibbs Free Energy=        -0.020632
 Sum of electronic and zero-point Energies=           -919.761822
 Sum of electronic and thermal Energies=              -919.759256
 Sum of electronic and thermal Enthalpies=            -919.758312
 Sum of electronic and thermal Free Energies=         -919.783654

                     E (Thermal)             CV                S
                      KCal/Mol        Cal/Mol-Kelvin    Cal/Mol-Kelvin
 Total                    2.363              6.159             53.336
 Electronic               0.000              0.000              0.000
 Translational            0.889              2.981             38.652
 Rotational               0.592              1.987             14.088
 Vibrational              0.881              1.191              0.595
 Vibration     1          0.881              1.191              0.595

 Optimization completed.
    -- Stationary point found.
 Normal termination of Gaussian 09 at Sat Sep 12 23:28:48 2015.
