 Gaussian 09, Revision D.01,
 Gaussian 09:  EM64L-G09RevD.01 24-Apr-2013

 -------------------------------------------------------------
 #p opt freq scf=xqc pbe1pbe def2svp empiricaldispersion=gd3bj
 -------------------------------------------------------------

 ----------------------------
 -- "CO Optimisation mkII" --
 ----------------------------
 Symbolic Z-matrix:
 Charge =  0 Multiplicity = 1

 SCF Done:  E(RPBE1PBE) =  -113.042745371     A.U. after   10 cycles
 SCF Done:  E(RPBE1PBE) =  -113.090234124     A.U. after   10 cycles
 SCF Done:  E(RPBE1PBE) =  -113.096391442     A.U. after   10 cycles
 SCF Done:  E(RPBE1PBE) =  -113.096405704     A.U. after    7 cycles
 Optimization completed.
    -- Stationary point found.
 Normal termination of Gaussian 09 at Sun Sep 13 20:18:05 2015.

 ---------------------------------------------------------------------
 #P Geom=AllCheck Guess=TCheck SCRF=Check GenChk RPBE1PBE/def2SVP Freq
 ---------------------------------------------------------------------

 Structure from the checkpoint file:  "CO_forDissoc_2.chk"
 ----------------------------
 -- "CO Optimisation mkII" --
 ----------------------------
 Charge =  0 Multiplicity = 1

                         Standard orientation:
 ---------------------------------------------------------------------
 Center     Atomic      Atomic             Coordinates (Angstroms)
 Number     Number       Type             X           Y           Z
 ---------------------------------------------------------------------
      1          8           0        0.000000    0.000000    0.483453
      2          6           0        0.000000    0.000000   -0.644605
 ---------------------------------------------------------------------

 SCF Done:  E(RPBE1PBE) =  -113.096405704     A.U. after    1 cycles

 The electronic state is 1-SG.
 Alpha  occ. eigenvalues --  -19.32119 -10.35037  -1.18494  -0.58947  -0.49457
 Alpha  occ. eigenvalues --   -0.49457  -0.38766
 Alpha virt. eigenvalues --   -0.01809  -0.01809   0.23333   0.41580   0.47624
 Alpha virt. eigenvalues --    0.47624   0.75046   0.86242   0.97015   0.97015
 Alpha virt. eigenvalues --    1.26055   1.61127   1.61128   1.67847   1.67847

 Mulliken charges:
               1
     1  O   -0.032567
     2  C    0.032567
 Sum of Mulliken charges =   0.00000

 Dipole moment (field-independent basis, Debye):
    X=              0.0000    Y=              0.0000    Z=              0.2073  Tot=              0.2073
 Quadrupole moment (field-independent basis, Debye-Ang):
   XX=            -10.0495   YY=            -10.0495   ZZ=            -12.2881
   XY=              0.0000   XZ=              0.0000   YZ=              0.0000

  Exact polarizability:   8.487   0.000   8.487   0.000   0.000  12.837
 Approx polarizability:  10.823   0.000  10.823   0.000   0.000  21.763

                      1
                     SG
 Frequencies --   2275.0525
 Red. masses --     13.4388
 Frc consts  --     40.9819
 IR Inten    --     79.0521

 - Thermochemistry -
 -------------------
 Temperature   298.150 Kelvin.  Pressure   1.00000 Atm.
 Atom     1 has atomic number  8 and mass  15.99491

 Molecular mass:    27.99491 amu.
 Principal axes and moments of inertia in atomic units:
                           1         2         3
     Eigenvalues --     0.00000  31.15621  31.15621
           X            0.00000   0.00000   1.00000
           Y            0.00000   1.00000   0.00000
           Z            1.00000   0.00000   0.00000
 This molecule is a prolate symmetric top.
 Rotational symmetry number  1.
 Rotational temperature (Kelvin)      2.77999
 Rotational constant (GHZ):          57.925561
 Zero-point vibrational energy      13607.8 (Joules/Mol)
                                    3.25235 (Kcal/Mol)
 Vibrational temperatures:   3273.29
          (Kelvin)

 Zero-point correction=                           0.005183 (Hartree/Particle)
 Thermal correction to Energy=                    0.007544
 Thermal correction to Enthalpy=                  0.008488
 Thermal correction to Gibbs Free Energy=        -0.013939
 Sum of electronic and zero-point Energies=           -113.091223
 Sum of electronic and thermal Energies=              -113.088862
 Sum of electronic and thermal Enthalpies=            -113.087918
 Sum of electronic and thermal Free Energies=         -113.110345

                     E (Thermal)             CV                S
                      KCal/Mol        Cal/Mol-Kelvin    Cal/Mol-Kelvin
 Total                    4.734              4.972             47.201
 Electronic               0.000              0.000              0.000
 Translational            0.889              2.981             35.923
 Rotational               0.592              1.987             11.278
 Vibrational              3.252              0.004              0.000

 Optimization completed.
    -- Stationary point found.
 Normal termination of Gaussian 09 at Sun Sep 13 20:18:09 2015.
