 Gaussian 09, Revision D.01,
 Gaussian 09:  EM64L-G09RevD.01 24-Apr-2013

 -------------------------------------------------------
 #p opt freq scf=xqc pbe1pbe def2svp empiricaldispersion
 -------------------------------------------------------

 -----------------------
 -- "N2 Optimisation" --
 -----------------------
 Symbolic Z-matrix:
 Charge =  0 Multiplicity = 1

 SCF Done:  E(RPBE1PBE) =  -109.315014318     A.U. after    9 cycles
 SCF Done:  E(RPBE1PBE) =  -109.315115869     A.U. after    6 cycles
 SCF Done:  E(RPBE1PBE) =  -109.315116291     A.U. after    5 cycles
 Optimization completed.
    -- Stationary point found.

 1\1\GINC-HEISENBERG007\FOpt\RPBE1PBE\def2SVP\N2\SAVILL\12-Sep-2015\0\\
 #p opt freq scf=xqc pbe1pbe def2svp empiricaldispersion\\-- "N2 Optimi
 sation" --\\0,1\N,-5.4194151791,0.91216215,0.\N,-6.5171787409,0.912162
 15,0.\\Version=EM64L-G09RevD.01\State=1-SGG\HF=-109.3151163\RMSD=7.526
 e-09\RMSF=2.988e-08\Dipole=0.,0.,0.\Quadrupole=-0.862625,0.4313125,0.4
 313125,0.,0.,0.\PG=D*H [C*(N1.N1)]\\@

 Normal termination of Gaussian 09 at Sat Sep 12 23:28:57 2015.

 ---------------------------------------------------------------------
 #P Geom=AllCheck Guess=TCheck SCRF=Check GenChk RPBE1PBE/def2SVP Freq
 ---------------------------------------------------------------------

 Structure from the checkpoint file:  "N2_forDissoc.chk"
 -----------------------
 -- "N2 Optimisation" --
 -----------------------
 Charge =  0 Multiplicity = 1

                         Standard orientation:
 ---------------------------------------------------------------------
 Center     Atomic      Atomic             Coordinates (Angstroms)
 Number     Number       Type             X           Y           Z
 ---------------------------------------------------------------------
      1          7           0        0.000000    0.000000    0.548882
      2          7           0        0.000000    0.000000   -0.548882
 ---------------------------------------------------------------------

 SCF Done:  E(RPBE1PBE) =  -109.315116291     A.U. after    1 cycles

 The electronic state is 1-SGG.
 Alpha  occ. eigenvalues --  -14.49261 -14.49090  -1.14591  -0.55858  -0.48231
 Alpha  occ. eigenvalues --   -0.48231  -0.44240
 Alpha virt. eigenvalues --   -0.01259  -0.01259   0.51859   0.53001   0.65005
 Alpha virt. eigenvalues --    0.66142   0.66142   0.67850   0.81144   0.81144
 Alpha virt. eigenvalues --    1.11566   1.82672   1.82672   1.85625   1.85625

 Mulliken charges:
               1
     1  N    0.000000
     2  N    0.000000
 Sum of Mulliken charges =   0.00000

 Dipole moment (field-independent basis, Debye):
    X=              0.0000    Y=              0.0000    Z=              0.0000  Tot=              0.0000
 Quadrupole moment (field-independent basis, Debye-Ang):
   XX=            -10.0313   YY=            -10.0313   ZZ=            -11.7717
   XY=              0.0000   XZ=              0.0000   YZ=              0.0000

  Exact polarizability:   6.032   0.000   6.032   0.000   0.000  12.978
 Approx polarizability:   7.757   0.000   7.757   0.000   0.000  25.280

                      1
                     SGG
 Frequencies --   2530.2368
 Red. masses --     14.0031
 Frc consts  --     52.8197
 IR Inten    --      0.0000

 - Thermochemistry -
 -------------------
 Temperature   298.150 Kelvin.  Pressure   1.00000 Atm.
 Atom     1 has atomic number  7 and mass  14.00307

 Molecular mass:    28.00615 amu.
 Principal axes and moments of inertia in atomic units:
                           1         2         3
     Eigenvalues --     0.00000  30.13067  30.13067
           X            0.00000   1.00000   0.00000
           Y            0.00000   0.00000   1.00000
           Z            1.00000   0.00000   0.00000
 This molecule is a prolate symmetric top.
 Rotational symmetry number  2.
 Rotational temperature (Kelvin)      2.87461
 Rotational constant (GHZ):          59.897154
 Zero-point vibrational energy      15134.2 (Joules/Mol)
                                    3.61716 (Kcal/Mol)
 Vibrational temperatures:   3640.44
          (Kelvin)

 Zero-point correction=                           0.005764 (Hartree/Particle)
 Thermal correction to Energy=                    0.008125
 Thermal correction to Enthalpy=                  0.009069
 Thermal correction to Gibbs Free Energy=        -0.012672
 Sum of electronic and zero-point Energies=           -109.309352
 Sum of electronic and thermal Energies=              -109.306991
 Sum of electronic and thermal Enthalpies=            -109.306047
 Sum of electronic and thermal Free Energies=         -109.327788

                     E (Thermal)             CV                S
                      KCal/Mol        Cal/Mol-Kelvin    Cal/Mol-Kelvin
 Total                    5.098              4.969             45.758
 Electronic               0.000              0.000              0.000
 Translational            0.889              2.981             35.924
 Rotational               0.592              1.987              9.834
 Vibrational              3.617              0.001              0.000

 Optimization completed.
    -- Stationary point found.

 1\1\GINC-HEISENBERG007\Freq\RPBE1PBE\def2SVP\N2\SAVILL\12-Sep-2015\0\\
 #P Geom=AllCheck Guess=TCheck SCRF=Check GenChk RPBE1PBE/def2SVP Freq\
 \-- "N2 Optimisation" --\\0,1\N,-5.4194151791,0.91216215,0.\N,-6.51717
 87409,0.91216215,0.\\Version=EM64L-G09RevD.01\State=1-SGG\HF=-109.3151
 163\RMSD=1.490e-10\RMSF=2.896e-08\ZeroPoint=0.0057643\Thermal=0.008124
 8\Dipole=0.,0.,0.\DipoleDeriv=0.,0.,0.,0.,0.,0.,0.,0.,0.,0.,0.,0.,0.,0
 .,0.,0.,0.,0.\Polar=12.9780391,0.,6.0315029,0.,0.,6.0315029\PG=D*H [C*
 (N1.N1)]\NImag=0\\1.69631755,0.,0.00010701,0.,0.,0.00010701,-1.6963175

 Normal termination of Gaussian 09 at Sat Sep 12 23:29:01 2015.
