 Gaussian 09, Revision D.01,
 Gaussian 09:  EM64L-G09RevD.01 24-Apr-2013

 -----------------------------------------------------
 #p opt freq pbe1pbe def2svp empiricaldispersion=gd3bj
 -----------------------------------------------------

 -----------------------------------
 -- "Propane for torsion testing" --
 -----------------------------------
 Symbolic Z-matrix:
 Charge =  0 Multiplicity = 1

 SCF Done:  E(RPBE1PBE) =  -118.899800349     A.U. after   11 cycles
 SCF Done:  E(RPBE1PBE) =  -118.906289346     A.U. after   10 cycles
 SCF Done:  E(RPBE1PBE) =  -118.906614028     A.U. after    9 cycles
 SCF Done:  E(RPBE1PBE) =  -118.906626461     A.U. after    7 cycles
 Optimization completed.
    -- Stationary point found.

 1\1\GINC-HEISENBERG010\FOpt\RPBE1PBE\def2SVP\C3H8\ROOT\02-May-2016\0\\
 #p opt freq pbe1pbe def2svp empiricaldispersion=gd3bj\\-- "Propane for
  torsion testing" --\\0,1\C,-2.5493173639,1.594843949,0.0048336053\H,-
 2.2119411248,0.5461501835,-0.0362419706\H,-2.2118869916,2.0835236896,-
 0.9239298531\H,-3.6502827697,1.5901596588,-0.0033462885\C,-1.995990434
 1,2.3033573754,1.2319343016\H,-2.3813826611,3.3373587046,1.2642977454\
 H,-2.3814223992,1.8144696447,2.1436166575\C,-0.4756275541,2.3280031716
 ,1.274682181\H,-0.0601497734,2.8442698084,0.3937078726\H,-0.099739132,

 Normal termination of Gaussian 09 at Mon May  2 15:49:29 2016.

 ---------------------------------------------------------------------
 #P Geom=AllCheck Guess=TCheck SCRF=Check GenChk RPBE1PBE/def2SVP Freq
 ---------------------------------------------------------------------

 Structure from the checkpoint file:  "propane.chk"
 -----------------------------------
 -- "Propane for torsion testing" --
 -----------------------------------
 Charge =  0 Multiplicity = 1

                         Standard orientation:
 ---------------------------------------------------------------------
 Center     Atomic      Atomic             Coordinates (Angstroms)
 Number     Number       Type             X           Y           Z
 ---------------------------------------------------------------------
      1          6           0       -1.269865   -0.257033    0.000000
      2          1           0       -1.317667   -0.909027    0.887630
      3          1           0       -1.317659   -0.909044   -0.887618
      4          1           0       -2.174245    0.370907   -0.000011
      5          6           0        0.000000    0.580452    0.000000
      6          1           0        0.000000    1.248008   -0.879262
      7          1           0        0.000000    1.248013    0.879258
      8          6           0        1.269865   -0.257033    0.000000
      9          1           0        1.317655   -0.909050   -0.887614
     10          1           0        2.174245    0.370907   -0.000018
     11          1           0        1.317671   -0.909022    0.887634
 ---------------------------------------------------------------------

 SCF Done:  E(RPBE1PBE) =  -118.906626461     A.U. after    1 cycles

 The electronic state is 1-A.
 Alpha  occ. eigenvalues --  -10.22682 -10.22042 -10.22040  -0.79519  -0.69039
 Alpha  occ. eigenvalues --   -0.59119  -0.46691  -0.44787  -0.40902  -0.38762
 Alpha  occ. eigenvalues --   -0.34900  -0.34496  -0.33204
 Alpha virt. eigenvalues --    0.07052   0.11810   0.11902   0.11904   0.14876
 Alpha virt. eigenvalues --    0.16881   0.17229   0.17832   0.22554   0.26705
 Alpha virt. eigenvalues --    0.41328   0.43471   0.44388   0.46210   0.47175

 Mulliken charges:
               1
     1  C   -0.095339
     2  H    0.038929
     3  H    0.038929
     4  H    0.042686
     5  C   -0.129876
     6  H    0.039733
     7  H    0.039733
     8  C   -0.095339
     9  H    0.038929
    10  H    0.042686
    11  H    0.038929
 Sum of Mulliken charges =   0.00000

 Dipole moment (field-independent basis, Debye):
    X=              0.0000    Y=              0.0544    Z=              0.0000  Tot=              0.0544
 Quadrupole moment (field-independent basis, Debye-Ang):
   XX=            -21.9761   YY=            -21.7045   ZZ=            -21.3350
   XY=              0.0000   XZ=              0.0000   YZ=              0.0000

  Exact polarizability:  38.137   0.000  34.211   0.000   0.000  32.922
 Approx polarizability:  43.538   0.000  43.507   0.000   0.000  43.441

                      1                      2                      3
                      A                      A                      A
 Frequencies --    229.0816               281.1612               367.5786
 Red. masses --      1.0281                 1.1379                 2.0191
 Frc consts  --      0.0318                 0.0530                 0.1607
 IR Inten    --      0.0000                 0.0054                 0.1695

                      4                      5                      6
                      A                      A                      A
 Frequencies --    751.9060               899.4568               904.9454
 Red. masses --      1.0787                 2.3453                 1.1048
 Frc consts  --      0.3593                 1.1179                 0.5331
 IR Inten    --      5.0405                 1.3141                 0.0000

                      7                      8                      9
                      A                      A                      A
 Frequencies --    926.6911              1093.3682              1172.5789
 Red. masses --      1.1794                 2.0896                 1.8396
 Frc consts  --      0.5968                 1.4718                 1.4902
 IR Inten    --      2.7103                 0.2216                 1.6718

                     10                     11                     12
                      A                      A                      A
 Frequencies --   1199.2108              1305.1944              1350.4559
 Red. masses --      1.6786                 1.1271                 1.3209
 Frc consts  --      1.4223                 1.1312                 1.4193
 IR Inten    --      0.5944                 0.0000                 1.2593

                     13                     14                     15
                      A                      A                      A
 Frequencies --   1401.1874              1401.8841              1459.2703
 Red. masses --      1.4908                 1.2644                 1.0332
 Frc consts  --      1.7245                 1.4640                 1.2963
 IR Inten    --      8.5669                 2.5760                 0.0000

                     16                     17                     18
                      A                      A                      A
 Frequencies --   1464.0264              1470.9684              1477.2907
 Red. masses --      1.0408                 1.0716                 1.0388
 Frc consts  --      1.3144                 1.3662                 1.3358
 IR Inten    --      0.0498                 1.6288                14.8008

                     19                     20                     21
                      A                      A                      A
 Frequencies --   1485.3254              3046.2112              3048.4462
 Red. masses --      1.0892                 1.0373                 1.0378
 Frc consts  --      1.4157                 5.6714                 5.6821
 IR Inten    --      5.6247                29.9888                18.8290

                     22                     23                     24
                      A                      A                      A
 Frequencies --   3053.0508              3093.6299              3133.7760
 Red. masses --      1.0633                 1.1033                 1.1038
 Frc consts  --      5.8392                 6.2216                 6.3868
 IR Inten    --     25.8802                 5.8479                 0.0000

                     25                     26                     27
                      A                      A                      A
 Frequencies --   3140.4568              3145.5302              3146.5643
 Red. masses --      1.1036                 1.1038                 1.1028
 Frc consts  --      6.4131                 6.4347                 6.4330
 IR Inten    --     65.1168                17.9030                32.1555

 - Thermochemistry -
 -------------------
 Temperature   298.150 Kelvin.  Pressure   1.00000 Atm.
 Atom     1 has atomic number  6 and mass  12.00000

 Molecular mass:    44.06260 amu.
 Principal axes and moments of inertia in atomic units:
                           1         2         3
     Eigenvalues --    61.09228 214.13456 241.41270
           X            1.00000   0.00000   0.00000
           Y            0.00000   1.00000   0.00000
           Z            0.00000   0.00000   1.00000
 This molecule is an asymmetric top.
 Rotational symmetry number  1.
 Rotational temperatures (Kelvin)      1.41775     0.40448     0.35878
 Rotational constants (GHZ):          29.54123     8.42807     7.47575
 Zero-point vibrational energy     271846.9 (Joules/Mol)
                                   64.97296 (Kcal/Mol)
 Warning -- explicit consideration of   3 degrees of freedom as
           vibrations may cause significant error
 Vibrational temperatures:    329.60   404.53   528.86  1081.82  1294.12
          (Kelvin)           1302.01  1333.30  1573.11  1687.08  1725.39
                             1877.88  1943.00  2015.99  2017.00  2099.56
                             2106.40  2116.39  2125.49  2137.05  4382.81
                             4386.03  4392.65  4451.04  4508.80  4518.41
                             4525.71  4527.20

 Zero-point correction=                           0.103541 (Hartree/Particle)
 Thermal correction to Energy=                    0.108050
 Thermal correction to Enthalpy=                  0.108994
 Thermal correction to Gibbs Free Energy=         0.077917
 Sum of electronic and zero-point Energies=           -118.803085
 Sum of electronic and thermal Energies=              -118.798577
 Sum of electronic and thermal Enthalpies=            -118.797633
 Sum of electronic and thermal Free Energies=         -118.828709

                     E (Thermal)             CV                S
                      KCal/Mol        Cal/Mol-Kelvin    Cal/Mol-Kelvin
 Total                   67.802             14.809             65.406
 Electronic               0.000              0.000              0.000
 Translational            0.889              2.981             37.275
 Rotational               0.889              2.981             22.673
 Vibrational             66.025              8.847              5.458
 Vibration     1          0.652              1.797              1.886
 Vibration     2          0.681              1.708              1.527
 Vibration     3          0.740              1.539              1.090

 Optimization completed.
    -- Stationary point found.

 1\1\GINC-HEISENBERG010\Freq\RPBE1PBE\def2SVP\C3H8\ROOT\02-May-2016\0\\
 #P Geom=AllCheck Guess=TCheck SCRF=Check GenChk RPBE1PBE/def2SVP Freq\
 \-- "Propane for torsion testing" --\\0,1\C,-2.5493173639,1.594843949,
 0.0048336053\H,-2.2119411248,0.5461501835,-0.0362419706\H,-2.211886991
 6,2.0835236896,-0.9239298531\H,-3.6502827697,1.5901596588,-0.003346288
 5\C,-1.9959904341,2.3033573754,1.2319343016\H,-2.3813826611,3.33735870
 46,1.2642977454\H,-2.3814223992,1.8144696447,2.1436166575\C,-0.4756275
 541,2.3280031716,1.274682181\H,-0.0601497734,2.8442698084,0.3937078726

 Normal termination of Gaussian 09 at Mon May  2 15:50:14 2016.
